# vtk DataFile Version 2.0
Points with velocity vectors and magnitude
ASCII
DATASET UNSTRUCTURED_GRID
POINTS 5747 float
6.34159e+06 579625 194595
6.34183e+06 576904 195034
6.34225e+06 573680 190747
6.34232e+06 577045 177835
6.34238e+06 564541 212498
6.34263e+06 568771 192919
6.344e+06 583430 54422.7
6.34534e+06 537259 193996
6.34546e+06 537823 188403
6.3457e+06 544712 158029
6.18955e+06 -951455 1.17212e+06
6.34677e+06 529437 166769
6.34801e+06 512015 173846
6.15899e+06 -959873 1.31723e+06
6.34868e+06 509805 154952
6.34885e+06 510325 145913
6.35016e+06 493946 145279
6.35036e+06 490952 146830
6.35036e+06 490952 146830
6.17811e+06 -939022 1.2405e+06
6.35035e+06 490685 147909
6.35042e+06 489865 147707
6.35049e+06 489313 146425
6.35075e+06 485234 148855
6.35136e+06 478388 144882
6.36143e+06 -146927 -316576
6.35223e+06 458677 168682
6.35267e+06 462244 139797
6.35288e+06 456862 147645
6.35368e+06 455667 113037
6.35482e+06 432465 137201
6.35482e+06 426429 155195
6.35665e+06 412143 112961
6.35735e+06 410755 70493
6.35566e+06 435147 -76565.2
6.3596e+06 353225 142688
6.35842e+06 397105 -50073.5
6.36049e+06 350909 103393
6.35988e+06 375699 -21871.7
6.36052e+06 362403 -45371.2
6.36432e+06 -34407.2 -289601
6.3614e+06 349166 -17567.7
6.36217e+06 326333 77365.3
6.36014e+06 360792 -90147.3
6.36239e+06 317026 95801.4
6.3577e+06 374148 -171195
6.36311e+06 316969 -3151.67
6.36529e+06 -84908.7 -256043
6.36214e+06 319908 -102405
6.36432e+06 289613 34141.1
6.36333e+06 302471 -78983.2
6.36033e+06 320775 -181680
6.36442e+06 284618 -53241.1
6.36547e+06 264522 20806.5
6.36621e+06 -48030 -242301
6.36616e+06 245588 36126.5
5.71762e+06 2.78786e+06 -355384
6.3634e+06 277985 -139741
6.36638e+06 232934 67442.7
6.3641e+06 195177 222994
6.36208e+06 280611 -186763
6.36678e+06 230257 26105.8
5.62476e+06 2.97857e+06 -282603
6.36465e+06 257272 -121352
6.36496e+06 240972 -137195
6.36258e+06 -83164.9 -316623
6.36584e+06 215557 -138955
6.36556e+06 215395 -151459
6.3639e+06 221317 -203430
6.36276e+06 -192946 -260262
6.3671e+06 180973 -130092
6.369e+06 156418 -31926.5
6.36627e+06 181596 -164973
6.36149e+06 -240866 -251034
6.37e+06 109110 27987.3
6.36998e+06 87671.4 72459.6
6.36106e+06 -205583 -290377
6.366e+06 -102713 -230626
6.36529e+06 -162937 -214934
5.77245e+06 2.68596e+06 -232469
5.70927e+06 2.81497e+06 -264286
6.36628e+06 -17325.5 -244510
6.36707e+06 -83211 -207602
6.36801e+06 -45039.5 -189764
6.36692e+06 -147746 -173732
6.36304e+06 -254217 -191620
5.16793e+06 -2.40989e+06 2.84157e+06
5.16844e+06 -2.38002e+06 2.86572e+06
5.2063e+06 -2.3445e+06 2.8262e+06
5.19113e+06 -2.32673e+06 2.86848e+06
5.17919e+06 -2.33103e+06 2.88651e+06
5.18252e+06 -2.28166e+06 2.91979e+06
5.23145e+06 -2.21178e+06 2.8861e+06
5.25314e+06 -2.20282e+06 2.85336e+06
5.26962e+06 -2.19023e+06 2.8326e+06
5.27736e+06 -2.20575e+06 2.80602e+06
5.29249e+06 -2.19663e+06 2.78461e+06
5.30753e+06 -2.17766e+06 2.77084e+06
5.31288e+06 -2.1923e+06 2.74896e+06
5.30199e+06 -2.21368e+06 2.75286e+06
5.28846e+06 -2.22698e+06 2.76811e+06
5.29326e+06 -2.24959e+06 2.7405e+06
5.28997e+06 -2.27204e+06 2.7283e+06
5.30787e+06 -2.23836e+06 2.72139e+06
5.32278e+06 -2.20148e+06 2.72233e+06
5.32805e+06 -2.21329e+06 2.70237e+06
5.32299e+06 -2.23707e+06 2.69275e+06
5.31796e+06 -2.2712e+06 2.67406e+06
5.2943e+06 -2.33611e+06 2.66507e+06
5.25844e+06 -2.40812e+06 2.67196e+06
5.25113e+06 -2.44526e+06 2.65253e+06
5.23609e+06 -2.48854e+06 2.64201e+06
5.20596e+06 -2.51566e+06 2.67565e+06
5.20097e+06 -2.47831e+06 2.71984e+06
5.20733e+06 -2.45216e+06 2.73135e+06
5.21362e+06 -2.43048e+06 2.73872e+06
6.36331e+06 -151460 -273780
5.18848e+06 -2.37446e+06 2.83395e+06
5.16237e+06 -2.35529e+06 2.89693e+06
5.25199e+06 -2.22709e+06 2.83661e+06
5.27463e+06 -2.22623e+06 2.79497e+06
5.28757e+06 -2.29354e+06 2.71494e+06
5.19469e+06 -2.42672e+06 2.77774e+06
5.18132e+06 -2.42066e+06 2.80785e+06
6.36489e+06 -255775 -111466
6.36539e+06 -200311 -177095
6.13713e+06 -966244 1.41124e+06
6.35751e+06 -397369 117407
6.35751e+06 -397369 117407
6.36014e+06 -328660 173766
6.36014e+06 -328660 173766
6.36014e+06 -328660 173766
6.36529e+06 -209614 169527
6.36529e+06 -209614 169527
6.36364e+06 -275765 133190
6.36364e+06 -275765 133190
6.36699e+06 -205366 94283.9
6.36699e+06 -205366 94283.9
6.36466e+06 -281578 38854.1
6.36466e+06 -281570 38181.7
6.36063e+06 -362243 28171.8
6.36063e+06 -362243 28171.8
6.36555e+06 -61576.1 -256226
6.06506e+06 1.86784e+06 561969
6.29387e+06 -961755 227812
6.29087e+06 -995407 154332
6.29136e+06 -994700 137786
6.28974e+06 -1.00552e+06 133220
6.29678e+06 -956255 160662
6.29873e+06 -945551 146718
6.29411e+06 -975011 152334
6.29883e+06 -942796 159652
6.28538e+06 -1.0347e+06 114291
6.28563e+06 -1.03483e+06 98378.4
6.28104e+06 -1.06033e+06 118070
6.29248e+06 -988689 129811
6.29342e+06 -986475 96526.9
6.28912e+06 -1.01298e+06 102548
6.29777e+06 -954104 131835
6.29569e+06 -970064 113504
6.29611e+06 -965026 131541
6.2911e+06 -1.00197e+06 88195.2
5.94867e+06 2.28044e+06 -50861.2
6.30514e+06 -910739 73604.3
6.3033e+06 -924048 64440
6.3107e+06 -869733 90850.5
6.31019e+06 -875130 72490
6.30739e+06 -893047 94286.1
6.30803e+06 -890480 74054.5
6.30115e+06 -939773 44717.5
6.30078e+06 -942845 29203.9
6.30576e+06 -907945 51375.7
6.30682e+06 -901211 38157.9
6.3034e+06 -924307 49619.8
6.30829e+06 -889966 55376
5.95764e+06 2.24885e+06 -197070
6.35815e+06 -346002 -209507
6.35815e+06 -346002 -209507
5.89438e+06 2.40939e+06 -201760
5.89696e+06 2.40847e+06 -121473
5.82018e+06 2.58714e+06 -147663
5.84476e+06 2.52377e+06 -242953
5.8601e+06 2.48106e+06 -305265
5.91632e+06 2.34706e+06 -279365
5.91963e+06 2.32956e+06 -347471
5.86226e+06 2.46747e+06 -367587
5.81118e+06 2.59085e+06 -327541
5.7884e+06 2.64922e+06 -256240
5.73091e+06 2.76919e+06 -279081
5.67953e+06 2.87857e+06 -215375
5.64649e+06 2.94195e+06 -227368
5.77486e+06 2.67237e+06 -314822
5.83586e+06 2.52394e+06 -402614
5.77814e+06 2.63882e+06 -489318
5.73716e+06 2.73973e+06 -410488
5.69174e+06 2.83193e+06 -417082
5.6628e+06 2.89127e+06 -403633
5.6781e+06 2.8689e+06 -343880
5.794e+06 -2.56199e+06 -674878
5.79701e+06 -2.55176e+06 -687634
5.21829e+06 -2.45492e+06 2.70785e+06
5.636e+06 2.9505e+06 -345952
5.78972e+06 -2.56689e+06 -692670
5.64178e+06 2.91936e+06 -487100
5.65413e+06 2.8915e+06 -509641
5.69846e+06 2.81336e+06 -449712
5.71581e+06 2.76527e+06 -521924
5.63269e+06 2.94134e+06 -459302
5.91431e+06 -2.36858e+06 19085
5.27417e+06 -2.29261e+06 2.74167e+06
5.23357e+06 -2.30011e+06 2.81226e+06
6.35562e+06 -433648 87659.2
6.3532e+06 -464914 101668
6.35294e+06 -474155 70060.7
6.35437e+06 -448822 100635
6.35432e+06 -458316 46810.2
5.27668e+06 -2.2591e+06 2.76454e+06
5.20994e+06 -2.28349e+06 2.86911e+06
5.23139e+06 -2.24372e+06 2.86145e+06
5.21964e+06 -2.23154e+06 2.89227e+06
5.27904e+06 -2.37464e+06 2.66129e+06
5.18146e+06 -2.40482e+06 2.82117e+06
5.23254e+06 -2.33089e+06 2.78876e+06
5.23541e+06 -2.41041e+06 2.71478e+06
5.24231e+06 -2.26189e+06 2.82696e+06
5.21722e+06 -2.487e+06 2.6805e+06
5.22887e+06 -2.46562e+06 2.67756e+06
5.22458e+06 -2.2791e+06 2.84589e+06
5.25522e+06 -2.27052e+06 2.79591e+06
5.31041e+06 -2.26081e+06 2.69776e+06
5.23786e+06 -2.359e+06 2.75492e+06
5.26229e+06 -2.28729e+06 2.76879e+06
5.18979e+06 -2.45728e+06 2.75997e+06
5.24224e+06 -2.42828e+06 2.68553e+06
5.20349e+06 -2.39177e+06 2.79155e+06
5.26363e+06 -2.32646e+06 2.7334e+06
5.24721e+06 -2.32735e+06 2.76403e+06
5.19635e+06 -2.30136e+06 2.87947e+06
6.30759e+06 -826240 -348199
6.30759e+06 -826240 -348199
6.31017e+06 -802991 -355742
6.31017e+06 -802991 -355742
6.36473e+06 -193837 -205582
6.27034e+06 1.09747e+06 -260878
6.27159e+06 1.08956e+06 -263824
6.27205e+06 1.08676e+06 -264469
6.27615e+06 1.06237e+06 -266373
6.27684e+06 1.05784e+06 -268121
6.27755e+06 1.05303e+06 -270530
6.27963e+06 1.03924e+06 -275457
6.28038e+06 1.03499e+06 -274325
6.06953e+06 -1.60207e+06 1.08802e+06
6.00677e+06 -1.22278e+06 1.73586e+06
5.81886e+06 2.59029e+06 -144469
5.81886e+06 2.59029e+06 -144469
6.27961e+06 1.06357e+06 -157925
5.92028e+06 2.3364e+06 284883
5.92028e+06 2.3364e+06 284883
6.31902e+06 766392 -268753
5.92025e+06 2.33647e+06 284923
5.79119e+06 2.65266e+06 -123156
5.79119e+06 2.65266e+06 -123156
6.31442e+06 843994 73785.2
6.31442e+06 843994 73785.2
5.80064e+06 -1.92683e+06 1.79709e+06
5.82706e+06 -2.18862e+06 1.35832e+06
5.84109e+06 -2.19453e+06 1.28661e+06
5.802e+06 -1.92231e+06 1.79752e+06
6.27909e+06 1.07822e+06 -11905.5
5.63566e+06 2.96211e+06 234218
6.06829e+06 1.86588e+06 532881
5.65595e+06 2.93209e+06 51830.7
6.20872e+06 1.14777e+06 -850908
6.21084e+06 978885 -1.02803e+06
5.79396e+06 2.64643e+06 -126994
5.91512e+06 2.3505e+06 275939
5.5265e+06 3.1492e+06 -360591
5.35851e+06 -1.33299e+06 -3.17791e+06
5.85141e+06 -2.15213e+06 1.3111e+06
6.31774e+06 -822010 8953.11
6.31774e+06 -822010 8953.11
6.31774e+06 -822010 8953.11
6.31774e+06 -822010 8953.11
6.18198e+06 -1.49648e+06 365171
6.29739e+06 -958823 114583
6.28941e+06 -1.002e+06 170185
6.32444e+06 -768276 -28798.5
6.32444e+06 -768276 -28798.5
5.83514e+06 -2.55149e+06 175045
6.2644e+06 -994512 598183
6.22189e+06 1.08571e+06 -836026
6.32266e+06 -745855 239298
6.3515e+06 157361 472543
5.82706e+06 -2.18862e+06 1.35832e+06
6.26647e+06 1.0806e+06 -391474
5.9993e+06 -2.11879e+06 329847
5.2155e+06 -2.29448e+06 2.85019e+06
5.37463e+06 2.5621e+06 -2.26687e+06
5.67719e+06 1.81186e+06 -2.25308e+06
6.23547e+06 1.08869e+06 -723371
6.26253e+06 1.1705e+06 18474.5
5.2112e+06 -2.29044e+06 2.86127e+06
6.35666e+06 -220527 -365859
6.35666e+06 -220527 -365859
6.24804e+06 -1.0959e+06 592109
6.36401e+06 -79879.3 -287419
5.20007e+06 3.55349e+06 960006
6.35111e+06 499313 -61370.9
6.35099e+06 500903 -60186.7
6.35055e+06 507093 -55142.9
6.35055e+06 507093 -55142.9
6.35055e+06 507093 -55142.9
6.11294e+06 -1.77759e+06 248676
6.11309e+06 -1.77682e+06 250514
6.05212e+06 1.97177e+06 271361
6.05212e+06 1.97177e+06 271361
6.05212e+06 1.97177e+06 271361
6.36652e+06 -41743.6 -235181
6.17851e+06 -1.47993e+06 474830
6.35207e+06 469211 143667
6.35207e+06 469211 143667
5.9729e+06 -2.21275e+06 133832
6.36112e+06 -278719 -219320
[...]
POINT_DATA 5747
SCALARS vel_mag float 1
LOOKUP_TABLE default
0.00818291
0.00811683
0.00989629
0.0109123
0.00928216
0.00692195
0.0144929
0.00767114
0.00782811
0.00978326
0.00722538
0.00966208
0.0076198
0.00712612
0.00826797
0.0119557
0.0106509
0.0105323
0.0102029
0.00729797
0.00753182
0.00779596
0.00892069
0.00785629
0.00865273
0.0227608
0.00725801
0.0111436
0.00751279
0.0104791
0.0120424
0.00941591
0.0136698
0.0129976
0.0156472
0.00999277
0.0161781
0.0115824
0.016273
0.0161792
0.0217632
0.0177205
0.0126219
0.0168694
0.01932
0.0160174
0.0150105
0.0201195
0.0167472
0.0110141
0.0169351
0.0138148
0.0159419
0.0139514
0.0202463
0.014
0.0254366
0.0157907
0.00987974
0.00884593
0.0159062
0.0144914
0.0264924
0.0146032
0.0181
0.0219686
0.0177395
0.018466
0.0177453
0.018419
0.0187205
0.0147562
0.0186496
0.016022
0.0156196
0.00669859
0.0200675
0.0197712
0.0126336
0.0233778
0.0240056
0.0212057
0.0177147
0.0185655
0.00933249
0.00162411
0.0199736
0.0201473
0.0206131
0.021432
0.0198044
0.0130512
0.00299233
0.00335956
0.00320047
0.00307786
0.00331962
0.00352363
0.0033579
0.00366789
0.00290654
0.00472617
0.00485894
0.00381303
0.0037447
0.00310397
0.00394932
0.00403769
0.00189118
0.00247779
0.00180061
0.00144007
0.00305407
0.0148328
0.014461
0.0154107
0.0227093
0.0205042
0.0201885
0.00303
0.003165
0.00352738
0.0195562
0.020016
0.00344237
0.00420333
0.00670499
0.00799107
0.0078498
0.0100747
0.0101892
0.00801431
0.00844932
0.00895624
0.00763793
0.0077675
0.00719944
0.00784728
0.00744242
0.00755137
0.00788663
0.00817351
0.0203194
0.0244532
0.0118283
0.0110128
0.010432
0.00990288
0.0111601
0.012894
0.0115673
0.0110881
0.00973665
0.010186
0.00906782
0.0108719
0.010098
0.00973907
0.0133048
0.0110566
0.0117309
0.0101807
0.0255517
0.0132482
0.0106962
0.012953
0.0126025
0.0126276
0.0131109
0.00970966
0.00878553
0.0122065
0.0115464
0.0109667
0.0120353
0.0251935
0.00345955
0.0041576
0.0260866
0.0228289
0.0233583
0.0230788
0.0268732
0.0270563
0.0255609
0.0282355
0.0274324
0.023893
0.0228033
0.0211862
0.0235941
0.0247853
0.027228
0.0306577
0.0260261
0.0245938
0.0265594
0.0275044
0.00751829
0.00579002
0.00892019
0.0258593
0.0069803
0.0321214
0.032353
0.0287484
0.0280497
0.033599
0.00581818
0.00475839
0.0177307
0.00781998
0.00875718
0.00958723
0.00710947
0.00984938
0.00410096
0.0176416
0.00442999
0.00329769
0.000898559
0.0201071
0.0175927
0.0107187
0.00291291
0.0036536
0.00457561
0.0172492
0.0028945
0.00310236
0.0110054
0.00541284
0.0174478
0.00536283
0.0192944
0.00742925
0.0129395
0.0205413
0.0131825
0.0132448
0.0119551
0.0115821
0.00744026
0.0210658
0.0266443
0.0189308
0.0194176
0.0187456
0.0212017
0.0210971
0.017495
0.00540324
0.005938
0.0240068
0.0233093
0.019852
0.0199671
0.0199396
0.0100091
0.0193453
0.0234671
0.0232838
0.0192044
0.0177215
0.00472853
0.00505531
0.00487811
0.00460315
0.0167447
0.0190539
0.0246925
0.0231065
0.0197247
0.0161398
0.0242714
0.0178102
0.0259452
0.0120071
0.00637868
0.0133057
0.0125043
0.0126276
0.0130664
0.00740452
0.0113813
0.0113819
0.0128302
0.0129769
0.00617481
0.00889478
0.0161906
0.0110298
0.00991832
0.00568281
0.0185953
0.00629682
0.0205842
0.0353818
0.0166714
0.0172779
0.0217941
0.0194708
0.0257752
0.0251223
0.0080538
0.02607
0.0209486
0.0153825
0.0147262
0.0154186
0.0162542
0.0152942
0.00710952
0.00699399
0.022206
0.0221453
0.0259839
0.0206953
0.00739102
0.00932464
0.00928228
0.00643425
0.0040674
0.00589902
0.00539289
0.012714
0.0202578
0.00865832
0.00790909
0.0278807
0.0296753
0.0285713
0.00562267
0.00711621
0.00636291
0.00739385
0.00811933
0.00668734
0.0202195
0.0196572
0.0149959
0.0147942
0.0144337
0.0148134
0.0145663
0.0203727
0.0164496
0.0108698
0.0209432
0.0217801
0.0219997
0.0104928
0.0103594
0.00541415
0.0166987
0.0157221
0.00789654
0.00962305
0.00977922
0.00949018
0.0238807
0.0174129
0.0220052
0.0190265
0.020985
0.0168708
0.0180122
0.00740453
0.0116366
0.0116571
0.00430845
0.0164004
0.0165031
0.0166681
0.0067135
0.0199695
0.00974928
0.00839671
0.0124093
0.0102705
0.00741895
0.00570572
0.00556166
0.00487622
0.00650401
0.00672348
0.00766286
0.00629565
0.00609986
0.00834587
0.0170406
0.0105247
0.00734403
0.0144148
0.00629037
0.00651583
0.0273899
0.0126089
0.0159163
0.00712451
0.0116997
0.00649811
0.0169139
0.0164334
0.0169397
0.00746205
0.0170444
0.00674828
0.0239554
0.00804453
0.0146593
0.0144096
0.0120113
0.0146637
0.00641183
0.0171994
0.00985283
0.0164603
0.00696491
0.00455451
0.00549691
0.00551518
0.00453322
0.00391783
0.0180474
0.0188363
0.0148909
0.0216221
0.0274357
0.0172031
0.00870641
0.00744932
0.00621915
0.0132338
0.0115085
0.0199015
0.0102637
0.0207167
0.0231551
0.0123972
0.00687208
0.00619466
0.0153795
0.0129188
0.00794982
0.00754351
0.0163994
0.0181003
0.0221587
0.00653358
0.0109183
0.0135222
0.00608327
0.00473672
0.0195842
0.0192771
0.0184265
0.0104227
0.00440337
0.00741741
0.0109673
0.00832159
0.0185317
0.00522164
0.00607688
0.00528608
0.0165061
0.0231829
0.00653578
0.0117734
0.0116687
0.0118504
0.00612684
0.0104078
0.00517223
0.00786912
0.0190483
0.0197061
0.0104579
0.0102123
0.00511551
0.0199408
0.00614818
0.0169649
0.0111765
0.013821
0.0137074
0.0138254
0.0204682
0.0238453
0.0238735
0.0245125
0.00816191
0.0124007
0.015461
0.00823334
0.00791676
0.0223793
0.00558291
0.01329
0.0132534
0.00668623
0.0096271
0.00470497
0.00518097
0.0221144
0.0189823
0.0188455
0.0199077
0.0188194
0.0123195
0.00476319
0.00621237
0.017046
0.00736709
0.0123129
0.00550139
0.00729779
0.0191589
0.017389
0.0176138
0.00791226
0.00636943
0.00564361
0.0203156
0.0242571
0.0208413
0.0214705
0.0211281
0.00606257
0.00296954
0.00297885
0.0188812
0.0105393
0.0179131
0.00652177
0.00614725
0.00818185
0.0249089
0.0360816
0.0211616
0.00493368
0.00742633
0.0105286
0.0224154
0.0164542
0.0082094
0.0161475
0.00880992
0.00864199
0.00851792
0.0169088
0.00172428
0.000373085
0.0242313
0.0206847
0.0079431
0.00586165
0.0237442
0.0238774
0.0236233
0.0237821
0.0152447
0.00748365
0.00785122
0.00811094
0.0129036
0.0123575
0.0161628
0.0112984
0.0203373
0.00486937
0.0192097
0.00835829
0.00890881
0.0188511
0.00967531
0.0163523
0.0114471
0.0124827
0.0110315
0.0111399
0.00764107
0.0227943
0.00934966
0.00557963
0.0103553
0.00688577
0.00649304
0.0139378
0.00840609
0.00838358
0.00905024
0.00717058
0.00624311
0.00680071
0.00472931
0.00750175
0.00675572
0.0186401
0.00991863
0.00741177
0.00646156
0.00509619
0.0165349
0.017758
0.0107092
0.0113918
0.0108015
0.0124077
0.00579268
0.017529
0.0298082
0.00742457
0.0206827
0.0209685
0.0199854
0.00911469
0.0122402
0.0146151
0.0129066
0.0131808
0.0213095
0.00632176
0.0148301
0.0149058
0.0181625
0.0146783
0.014922
0.00648463
0.00748526
0.0137957
0.0174561
0.00707809
0.010666
0.0309288
0.0226147
0.0236599
0.0202621
0.0218569
0.0231546
0.0221616
0.0225847
0.0230178
0.0225326
0.0238729
0.0211328
0.0216418
0.0090033
0.00590588
0.00886101
0.0065286
0.0065323
0.0211555
0.0211953
0.0221771
0.00705717
0.00803195
0.024244
0.0364982
0.0135178
0.0133475
0.0135211
0.00615793
0.00647939
0.016025
0.0329853
0.00616661
0.00864407
0.00870843
0.0170161
0.0171609
0.0103824
0.0106425
0.0106628
0.0165993
0.0137533
0.0134119
0.0158259
0.00722
0.0236722
0.00765621
0.0151494
0.0149569
0.0151394
0.0075603
0.0280515
0.0238556
0.0131257
0.00772464
0.0093177
0.0078429
0.00717858
0.010622
0.0110805
0.0129878
0.00595295
0.00432658
0.00658145
0.0075715
0.00954803
0.0162529
0.0201647
0.00674001
0.00701149
0.00858329
0.0206637
0.0109925
0.0108878
0.00525845
0.00975383
0.0193352
0.00716711
0.016546
0.00756181
0.0173211
0.0166588
0.013107
0.0127243
0.0131374
0.0158702
0.0180742
0.0181598
0.0169624
0.0233187
0.0196106
0.0166695
0.0180528
0.0041246
0.0081493
0.0115406
0.0162435
0.0132861
0.0136689
0.0139111
0.00767978
0.00755002
0.00927403
0.00678751
0.00618213
0.0261297
0.0263944
0.00439828
0.00660826
0.00506393
0.0081865
0.00716979
0.0090549
0.00776612
0.00808898
0.00855139
0.00557804
0.00450747
0.00876395
0.00855101
0.0373622
0.0177782
0.00831906
0.0161101
0.00841981
0.00837248
0.0081876
0.00487027
0.0165033
0.0239325
0.0240829
0.0240859
0.0250399
0.0117384
0.00992209
0.00749319
0.00977535
0.00726865
0.0131294
0.0331574
0.0320479
0.0287142
0.00581211
0.00876109
0.00687145
0.0201617
0.0204423
0.00743082
0.0199243
0.0198667
0.00708756
0.0257237
0.0260698
0.0274628
0.0222682
0.0223662
0.0219612
0.0235279
0.0228562
0.0182252
0.0247158
0.0251613
0.00806681
0.00775427
0.0205637
0.0122617
0.00746692
0.0152606
0.00629311
0.00725203
0.0173888
0.0118249
0.011662
0.00674388
0.0116032
0.0177581
0.00909746
0.0211804
0.00470401
0.0139456
0.00130044
0.0213353
0.0190521
0.0101452
0.010041
0.0101338
0.00931872
0.00599657
0.00703093
0.00682745
0.0109152
0.00790361
0.00725512
0.0177958
0.0112672
0.0111519
0.019185
0.0117088
0.017288
0.0322041
0.00604765
0.0173338
0.0198674
0.00804521
0.0201186
0.0157646
0.0105208
0.00806917
0.00793536
0.00845695
0.00732713
0.00931752
0.0206782
0.0204052
0.0207318
0.00749442
0.00825214
0.00892426
0.00807034
0.00826932
0.00837066
0.00657685
0.0151725
0.0117217
0.0112056
0.0110883
0.0105038
0.0101516
0.00529205
0.0205613
0.019991
0.0199492
0.0170401
0.00751669
0.0101674
0.00985966
0.00973029
0.00613024
0.00777666
0.00920963
0.00594221
0.00594266
0.00793166
0.00719764
0.0232909
0.00836489
0.00825724
0.00799619
0.00772913
0.00914404
0.00593372
0.00615892
0.00699437
0.00620836
0.00932447
0.00334442
0.00906327
0.0127109
0.012683
0.0178798
0.00818034
0.00499824
0.00916811
0.017268
0.00822912
0.009586
0.00851116
0.0186087
0.00744534
0.0108615
0.0052442
0.00800402
0.00653366
0.00748674
0.00630376
0.00631534
0.0130928
0.00829576
0.0111486
0.0063443
0.00534964
0.00579599
0.00823748
0.0108179
0.019364
0.0165285
0.0138826
0.022989
0.0166588
0.00768794
0.0102196
0.00883335
0.0095908
0.00295264
0.0252221
0.00601523
0.00637798
0.00794681
0.010492
0.0123334
0.00699254
0.0166727
0.0223154
0.0163494
0.0102897
0.0110385
0.00931382
0.0121721
0.0117015
0.021407
0.0068576
0.00806838
0.00756624
0.00840916
0.00934023
0.0223252
0.00460672
0.00840273
0.0151412
0.00634659
0.00654614
0.00654935
0.00712691
0.00771787
0.0083492
0.00171762
0.00178518
0.00106518
0.0110414
0.0110492
0.0114595
0.011387
0.0185648
0.00588529
0.0179887
0.0227675
0.00925503
0.0179141
0.0123514
0.0122112
0.00716633
0.00939759
0.0097875
0.00674965
0.00577851
0.00497228
0.00859825
0.00943845
0.00783922
0.00753497
0.00504342
0.00828058
0.0124735
0.00603576
0.0426176
0.0160737
0.00760914
0.00576529
0.0121922
0.00911551
0.00913734
0.0170284
0.00943353
0.0138138
0.00831988
0.0137064
0.0151271
0.0177101
0.00826529
0.00822704
0.00811442
0.00667135
0.0114548
0.00586042
0.00751381
0.00557827
0.00547419
0.00649538
0.00674583
0.013144
0.0130852
0.0136397
0.0178477
0.0131453
0.0102696
0.00594502
0.0116589
0.0116535
0.0117107
0.0115724
0.00982642
0.00825827
0.00850008
0.00843578
0.0184749
0.0093373
0.00973987
0.015124
0.0144829
0.00604833
0.0146213
0.00567304
0.0105789
0.0164244
0.0135171
0.0133179
0.0117903
0.0204882
0.0201211
0.0205327
0.00456525
0.00744938
0.0125226
0.00777191
0.00971829
0.00562244
0.0065239
0.00921513
0.00918411
0.00877199
0.00850045
0.00934925
0.0104994
0.0103737
0.00721075
0.0121154
0.0152427
0.00926544
0.0131275
0.00534328
0.0100203
0.00649197
0.00795549
0.00606951
0.00572903
0.00526617
0.00838104
0.00504657
0.0124541
0.0123986
0.0122423
0.00811967
0.00602115
0.00758654
0.00860029
0.00877506
0.00907006
0.00755807
0.00611055
0.00744133
0.00743791
0.00979099
0.00927415
0.00949512
0.00608587
0.0112831
0.02995
0.00851854
0.0116865
0.00601079
0.00891141
0.0126662
0.00661424
0.0160063
0.0118228
0.0159866
0.0118864
0.0161365
0.0111074
0.0121271
0.00632536
0.0101345
0.00988199
0.00446948
0.0123851
0.0151724
0.00732361
0.0067725
0.0215901
0.0176048
0.0076474
0.0215018
0.0064008
0.0079638
0.00702158
0.0186925
0.0218926
0.0185264
0.0204293
0.0226486
0.00556205
0.00805756
0.0131563
0.010727
0.0105199
0.0128266
0.00735765
0.0100677
0.0104037
0.013189
0.00617423
0.00968857
0.023757
0.00602408
0.00653838
0.00800152
0.0194122
0.0184162
0.0186546
0.00956605
0.0120322
0.0114985
0.012035
0.0176044
0.00896896
0.0114657
0.00648122
0.00639536
0.0089707
0.00897414
0.00920871
0.00941986
0.00968277
0.00925815
0.00916944
0.0111103
0.0113832
0.0115587
0.011857
0.00565136
0.017221
0.0308474
0.0179494
0.00786177
0.016885
0.0214183
0.00387392
0.00442654
0.00466688
0.00333005
0.00597897
0.00983437
0.00843043
0.00199775
0.0015249
0.00420721
0.00403988
0.00683066
0.00615346
0.0120343
0.00842811
0.0134775
0.0133403
0.0107359
0.0117457
0.0103324
0.0059251
0.0108269
0.00950778
0.00570784
0.0140744
0.0166549
0.0148529
0.0165973
0.0122384
0.0148355
0.00871385
0.0115898
0.0109276
0.0163296
0.0127837
0.0180503
0.0182859
0.0169573
0.0174612
0.0193674
0.0193561
0.0178983
0.0196151
0.0182088
0.0198975
0.0235424
0.0131451
0.01765
0.0218128
0.0215365
0.0223696
0.0214636
0.0216614
0.0210167
0.0202167
0.0213298
0.0232678
0.0218653
0.0219703
0.0244184
0.0206866
0.0218258
0.0230885
0.0234868
0.0223915
0.0249683
0.0224175
0.0223919
0.0112759
0.0116588
0.00891386
0.0128041
0.00561492
0.0209999
0.00678356
0.00697464
0.00690483
0.0066873
0.0061949
0.00620195
0.00382183
0.00651871
0.0257427
0.026423
0.0067542
0.00631871
0.00792554
0.00509884
0.00769017
0.00639932
0.0219557
0.00837806
0.0181269
0.0185673
0.0067401
0.00789147
0.0120886
0.0179835
0.0170096
0.00720325
0.00643031
0.0124515
0.00674833
0.00737177
0.0204503
0.0214558
0.00701576
0.0323536
0.023598
0.0190333
0.0116463
0.012755
0.0140329
0.0110471
0.0108407
0.0127691
0.0127275
0.0196274
0.0093636
0.00899282
0.0194405
0.0188888
0.0194236
0.00890063
0.0106798
0.00960917
0.0105683
0.010278
0.00893396
0.00672296
0.00770418
0.0252006
0.0235705
0.0220575
0.0225057
0.00829805
0.0209636
0.0211268
0.0190977
0.00455149
0.0198753
0.00864743
0.00483821
0.00983597
0.00711892
0.00693371
0.00738819
0.00410067
0.00591807
0.0186884
0.0182302
0.0180299
0.0193753
0.0231838
0.0179997
0.02578
0.0192615
0.0228351
0.0101611
0.0102607
0.0100003
0.0104334
0.0111332
0.0177526
0.0212546
0.0167273
0.00909418
0.016842
0.00795462
0.0104345
0.0351846
0.00649461
0.0113296
0.00945784
0.00967746
0.00604177
0.0112495
0.0111142
0.0117638
0.0107106
0.0059619
0.0078318
0.00983584
0.00611973
0.00763444
0.0116949
0.0203511
0.00615107
0.00492437
0.0111971
0.0112027
0.0112562
0.0112316
0.00664223
0.0127865
0.00900831
0.00627337
0.00625028
0.00618468
0.00642596
0.0148706
0.0133661
0.0107047
0.00725002
0.0103222
0.0171139
0.0105021
0.0114624
0.00620247
0.0151789
0.0180242
0.0122704
0.0129293
0.0130275
0.0133103
0.0131488
0.0131456
0.00861953
0.00698426
0.0064621
0.00997761
0.00607753
0.00644948
0.0200926
0.00819499
0.00810637
0.00830616
0.00797018
0.00608318
0.00886167
0.00872843
0.00879636
0.00883803
0.00692532
0.00738823
0.00882023
0.00875538
0.012323
0.00999965
0.0104057
0.0119244
0.0105012
0.0115125
0.00600631
0.00517367
0.0205505
0.00717421
0.00680138
0.00654122
0.01036
0.0119406
0.0128814
0.0118659
0.00837473
0.00862265
0.0163375
0.00849898
0.0173224
0.00877096
0.00950615
0.00954984
0.004328
0.00588393
0.00963604
0.00713135
0.00802033
0.00791289
0.00980552
0.0141784
0.00412537
0.00606534
0.00546632
0.00776019
0.00590296
0.0057657
0.00579668
0.00365428
0.00345372
0.006152
0.00681572
0.00495996
0.00584061
0.00494724
0.00582838
0.00463755
0.00639205
0.006351
0.011815
0.0062535
0.00565563
0.00719328
0.00398841
0.00655337
0.00642258
0.00587807
0.00645548
0.0177102
0.00626126
0.0122979
0.00788961
0.0124193
0.0063959
0.0111326
0.00758691
0.00983287
0.00783863
0.0124721
0.0116926
0.0118787
0.0117485
0.0178897
0.0163265
0.0107326
0.0120847
0.0119968
0.0118963
0.0168999
0.0191192
0.0179078
0.0153855
0.00975822
0.00812928
0.00861263
0.00788544
0.00865845
0.00794316
0.00771615
0.00757951
0.00422927
0.00345166
0.00351873
0.00401448
0.00325063
0.0140306
0.0137096
0.0140438
0.0113508
0.0111
0.0113806
0.00759585
0.00589062
0.0160917
0.00802574
0.0246741
0.0149372
0.0148484
0.00800233
0.00796301
0.00799754
0.00795879
0.0196561
0.0191202
0.0186911
0.00731581
0.0216465
0.020501
0.0269591
0.0295079
0.0208871
0.0218374
0.0218806
0.019778
0.0126906
0.0124955
0.0053201
0.00842901
0.00851262
0.00796956
0.0163905
0.0169843
0.0197146
0.0249472
0.0201164
0.0208592
0.0353108
0.00760795
0.00860481
0.00812048
0.0167632
0.0316312
0.0231863
0.0226665
0.0252231
0.0136481
0.0120635
0.0230296
0.0201028
0.0187209
0.018345
0.022657
0.0174526
0.0182834
0.01976
0.0204821
0.0167448
0.0169155
0.0165082
0.0143825
0.0261268
0.00367385
0.00746878
0.014397
0.0266613
0.0276522
0.0238065
0.0248973
0.00702812
0.00819565
0.00841349
0.00584718
0.026103
0.0101473
0.0101673
0.0268735
0.0270085
0.0276683
0.0272683
0.0142564
0.0105763
0.00738263
0.00603813
0.0157936
0.013907
0.0198999
0.00703036
0.0187
0.00763381
0.00748635
0.0269476
0.0347047
0.00623451
0.00619275
0.0345121
0.0367465
0.00589273
0.00702732
0.00629765
0.00695309
0.00648624
0.0161379
0.0081856
0.0129652
0.00868216
0.00855754
0.0221024
0.0244627
0.0162018
0.0258626
0.00677453
0.0179942
0.00791064
0.00603371
0.00588621
0.0150754
0.0146053
0.0152505
0.0146649
0.0143089
0.0146576
0.0263199
0.00427011
0.00703565
0.0294375
0.00840461
0.00638306
0.00773781
0.00837514
0.00851051
0.00681839
0.00639783
0.0186217
0.0162
0.0167026
0.019047
0.00626807
0.00435604
0.00436382
0.00431775
0.0204334
0.00684356
0.00933668
0.00854322
0.00656272
0.00648511
0.00921343
0.00938811
0.0117708
0.00939469
0.00828308
0.0211638
0.0283049
0.0176453
0.0187994
0.00717154
0.0063899
0.0228602
0.0220189
0.0196448
0.00678666
0.0172179
0.00784427
0.00869616
0.0101959
0.00784531
0.00558663
0.00422197
0.00501627
0.00674363
0.00668237
0.0187025
0.00624075
0.00720215
0.00727891
0.0165633
0.0165389
0.00495163
0.0234192
0.0246408
0.0225883
0.0229317
0.0133188
0.0151957
0.0121609
0.012121
0.00287602
0.00889918
0.00343051
0.0048129
0.00580443
0.00540635
0.0168941
0.0172872
0.0192408
0.00805617
0.0194564
0.015655
0.0148427
0.0243569
0.00776603
0.0192647
0.0173128
0.0215415
0.00522307
0.00563335
0.00684036
0.0109966
0.0112601
0.011212
0.0176239
0.00597599
0.0123044
0.00769025
0.0329386
0.00513804
0.0286346
0.00544719
0.00681349
0.0108441
0.00664987
0.014481
0.0142725
0.0144871
0.0114739
0.00640417
0.0123085
0.0185691
0.00765793
0.00813901
0.0204506
0.018476
0.01304
0.0107305
0.005974
0.00097359
0.00201162
0.00123676
0.00815637
0.0125171
0.00694915
0.00780649
0.0164946
0.0191955
0.0308917
0.0165204
0.00834624
0.0093818
0.00468567
0.0108347
0.0180778
0.0176727
0.00685026
0.00690517
0.0261883
0.00656856
0.00618043
0.00974606
0.0198833
0.0200039
0.00656185
0.0153426
0.0153168
0.0153313
0.0153531
0.00750363
0.00594753
0.0238231
0.00726007
0.00698031
0.0154197
0.00722134
0.00594884
0.00709504
0.00624636
0.00700344
0.0158456
0.0161456
0.0155815
0.0158608
0.0159658
0.0173678
0.00479541
0.0184112
0.0212648
0.0181549
0.0315073
0.00498427
0.0159949
0.00707011
0.00595086
0.00716738
0.00760287
0.00699706
0.0102287
0.0052313
0.00629885
0.0161658
0.00702292
0.0083897
0.00745357
0.0139352
0.0172837
0.0136926
0.0139401
0.0158621
0.0184415
0.0189635
0.0320965
0.0314578
0.0275996
0.0260731
0.0253535
0.023542
0.0209067
0.0232458
0.0280117
0.0300119
0.0318705
0.0327806
0.0314632
0.0280232
0.0281518
0.0254421
0.031343
0.0334601
0.0306607
0.0336225
0.0355848
0.0326364
0.0303928
0.0298108
0.0317092
0.0325142
0.0349778
0.0110427
0.00685611
0.00838042
0.0161724
0.0285595
0.0287537
0.0145148
0.0141385
0.00592107
0.0265814
0.013187
0.00475939
0.0113092
0.00618752
0.0102494
0.0102373
0.0109456
0.00738471
0.00618819
0.00617764
0.0115913
0.0119721
0.00768695
0.00991152
0.0205862
0.00911664
0.00652163
0.00955342
0.00946039
0.0182587
0.0182507
0.00630078
0.00542196
0.0055947
0.00640618
0.0125658
0.0190833
0.0183378
0.0378898
0.00702079
0.0224713
0.00821435
0.0354976
0.0117415
0.0306813
0.00762789
0.0187501
0.00927305
0.0127339
0.00736212
0.00381722
0.0303443
0.0299617
0.00935326
0.00974976
0.00184319
0.00167468
0.0173609
0.0172473
0.0167297
0.00694151
0.021469
0.00550675
0.0189344
0.0172151
0.00933847
0.00823877
0.00659317
0.00580579
0.00555568
0.00603677
0.00584996
0.00836174
0.0126456
0.0224302
0.00957903
0.0210238
0.00508958
0.00890906
0.0097712
0.0160074
0.0111863
0.00622703